4
Lattice="4.521518737811202 0.0 0.0 -2.2607593689056014 3.9157500906318514 0.0 0.0 0.0 5.21030901" Properties=species:S:1:pos:R:3 nomad_metadata_type=https://encyclopedia.nomad-coe.eu/api/v1.0/ nomad_enc_material_id=23882 nomad_uri=materials/23882 nomad_enc_calc_id=3928477 nomad_program_name=VASP nomad_potential_energy=0.0 nomad_total_energy=-3.2437785461656428 nomad_free_energy=-3.2437785461656428 pbc="T T T"
Al       0.00000000       0.00000000       1.30257725 
Al      -0.00000000       2.61050006       1.30257725 
Al       0.00000000       0.00000000       3.90773176 
Al       2.26075937       1.30525003       3.90773176 
4
Lattice="4.519999914956588 0.0 0.0 -2.2599999574782945 3.9144347514559072 0.0 0.0 0.0 5.21747086" Properties=species:S:1:pos:R:3 nomad_metadata_type=https://encyclopedia.nomad-coe.eu/api/v1.0/ nomad_enc_material_id=23882 nomad_uri=materials/23882 nomad_enc_calc_id=3935235 nomad_program_name=VASP nomad_potential_energy=5.8329996694269574e-05 nomad_total_energy=-3.236387991584487 nomad_free_energy=-3.236368549085589 pbc="T T T"
Al       0.00000000       0.00000000       1.30436771 
Al      -0.00000000       2.60962317       1.30436771 
Al       0.00000000       0.00000000       3.91310314 
Al       2.25999996       1.30481158       3.91310314 
4
Lattice="4.494238133323609 0.0 0.0 -2.247119066661805 3.892124394115 0.0 0.0 0.0 5.29580839" Properties=species:S:1:pos:R:3 nomad_metadata_type=https://encyclopedia.nomad-coe.eu/api/v1.0/ nomad_enc_material_id=23882 nomad_uri=materials/23882 nomad_enc_calc_id=77567 nomad_program_name=VASP nomad_potential_energy=-0.000964247445353295 nomad_total_energy=-3.198327111241508 nomad_free_energy=-3.1986485287232926 pbc="T T T"
Al       0.00000000       0.00000000       1.32395210 
Al      -0.00000000       2.59474960       1.32395210 
Al       0.00000000       0.00000000       3.97185629 
Al       2.24711907       1.29737480       3.97185629 
4
Lattice="4.52743362849356 0.0 0.0 -2.26371681424678 3.92087253622338 0.0 0.0 0.0 5.193738" Properties=species:S:1:pos:R:3 nomad_metadata_type=https://encyclopedia.nomad-coe.eu/api/v1.0/ nomad_enc_material_id=23882 nomad_uri=materials/23882 nomad_enc_calc_id=77742 nomad_program_name=VASP nomad_potential_energy=0.0 nomad_total_energy=-3.2448962561022996 nomad_free_energy=-3.2448962561022996 pbc="T T T"
Al       0.00000000       0.00000000       1.29843450 
Al       0.00000000       2.61391502       1.29843450 
Al       0.00000000       0.00000000       3.89530350 
Al       2.26371681       1.30695751       3.89530350 
4
Lattice="4.527433565371773 0.0 0.0 -2.263716782685887 3.92087248155831 0.0 0.0 0.0 5.19373788" Properties=species:S:1:pos:R:3 nomad_metadata_type=https://encyclopedia.nomad-coe.eu/api/v1.0/ nomad_enc_material_id=23882 nomad_uri=materials/23882 nomad_enc_calc_id=77790 nomad_program_name=VASP nomad_potential_energy=0.0002838449839136799 nomad_total_energy=-3.2395963939026577 nomad_free_energy=-3.2395017789080196 pbc="T T T"
Al       0.00000000       0.00000000       1.29843447 
Al      -0.00000000       2.61391499       1.29843447 
Al       0.00000000       0.00000000       3.89530341 
Al       2.26371678       1.30695749       3.89530341 
4
Lattice="4.0404701749660425 0.0 0.0 0.0 4.0404701749660425 0.0 0.0 0.0 4.0404701749660425" Properties=species:S:1:pos:R:3 nomad_metadata_type=https://encyclopedia.nomad-coe.eu/api/v1.0/ nomad_enc_material_id=17196 nomad_uri=materials/17196 nomad_enc_calc_id=1009806 nomad_program_name=VASP nomad_potential_energy=0.000741204957993761 nomad_total_energy=-3.7267018187969785 nomad_free_energy=-3.72645474881098 pbc="T T T"
Al       0.00000000       0.00000000       0.00000000 
Al       0.00000000       2.02023509       2.02023509 
Al       2.02023509       0.00000000       2.02023509 
Al       2.02023509       2.02023509       0.00000000 
4
Lattice="4.040470315594109 0.0 0.0 0.0 4.040470315594109 0.0 0.0 0.0 4.040470315594109" Properties=species:S:1:pos:R:3 nomad_metadata_type=https://encyclopedia.nomad-coe.eu/api/v1.0/ nomad_enc_material_id=17196 nomad_uri=materials/17196 nomad_enc_calc_id=1009985 nomad_program_name=VASP nomad_potential_energy=0.0 nomad_total_energy=-3.7457392477180713 nomad_free_energy=-3.7457392477180713 pbc="T T T"
Al       0.00000000       0.00000000       0.00000000 
Al       0.00000000       2.02023516       2.02023516 
Al       2.02023516       0.00000000       2.02023516 
Al       2.02023516       2.02023516       0.00000000 
4
Lattice="4.038933400832816 0.0 0.0 0.0 4.038933400832816 0.0 0.0 0.0 4.038933400832816" Properties=species:S:1:pos:R:3 nomad_metadata_type=https://encyclopedia.nomad-coe.eu/api/v1.0/ nomad_enc_material_id=17196 nomad_uri=materials/17196 nomad_enc_calc_id=1010185 nomad_program_name=VASP nomad_potential_energy=-5.2439997028072974e-05 nomad_total_energy=-3.7436432678368567 nomad_free_energy=-3.7436607478358663 pbc="T T T"
Al       0.00000000       0.00000000       0.00000000 
Al       0.00000000       2.01946670       2.01946670 
Al       2.01946670       0.00000000       2.01946670 
Al       2.01946670       2.01946670       0.00000000 
4
Lattice="4.039013175492962 0.0 0.0 0.0 4.039013175492962 0.0 0.0 0.0 4.039013175492962" Properties=species:S:1:pos:R:3 nomad_metadata_type=https://encyclopedia.nomad-coe.eu/api/v1.0/ nomad_enc_material_id=17196 nomad_uri=materials/17196 nomad_enc_calc_id=1012094 nomad_program_name=VASP nomad_potential_energy=-3.674999791727082e-05 nomad_total_energy=-3.7433795878518006 nomad_free_energy=-3.7433918378511066 pbc="T T T"
Al       0.00000000       0.00000000       0.00000000 
Al       0.00000000       2.01950659       2.01950659 
Al       2.01950659       0.00000000       2.01950659 
Al       2.01950659       2.01950659       0.00000000 
4
Lattice="4.10645472 0.0 0.0 0.0 4.10645472 0.0 0.0 0.0 4.10645472" Properties=species:S:1:pos:R:3 nomad_metadata_type=https://encyclopedia.nomad-coe.eu/api/v1.0/ nomad_enc_material_id=17196 nomad_uri=materials/17196 nomad_enc_calc_id=103522 nomad_program_name=VASP nomad_potential_energy=-0.01013804692544742 nomad_total_energy=-5.423903070111651 nomad_free_energy=-5.428972092324376 pbc="T T T"
Al       0.00000000       0.00000000       0.00000000 
Al       0.00000000       2.05322736       2.05322736 
Al       2.05322736       0.00000000       2.05322736 
Al       2.05322736       2.05322736       0.00000000 
4
Lattice="4.04032680856229 0.0 0.0 0.0 4.04032680856229 0.0 0.0 0.0 4.04032680856229" Properties=species:S:1:pos:R:3 nomad_metadata_type=https://encyclopedia.nomad-coe.eu/api/v1.0/ nomad_enc_material_id=17196 nomad_uri=materials/17196 nomad_enc_calc_id=1042054 nomad_program_name=VASP nomad_potential_energy=-4.7849997288201594e-05 nomad_total_energy=-3.7363953082476193 nomad_free_energy=-3.7364112582467155 pbc="T T T"
Al       0.00000000       0.00000000       0.00000000 
Al       0.00000000       2.02016340       2.02016340 
Al       2.02016340       0.00000000       2.02016340 
Al       2.02016340       2.02016340       0.00000000 
4
Lattice="4.03897114 0.0 0.0 0.0 4.03897114 0.0 0.0 0.0 4.03897114" Properties=species:S:1:pos:R:3 nomad_metadata_type=https://encyclopedia.nomad-coe.eu/api/v1.0/ nomad_enc_material_id=17196 nomad_uri=materials/17196 nomad_enc_calc_id=1043726 nomad_program_name=VASP nomad_potential_energy=-1.6599999059229813e-05 nomad_total_energy=-3.74357492784073 nomad_free_energy=-3.743580457840417 pbc="T T T"
Al       0.00000000       0.00000000       0.00000000 
Al       0.00000000       2.01948557       2.01948557 
Al       2.01948557       0.00000000       2.01948557 
Al       2.01948557       2.01948557       0.00000000 
4
Lattice="4.038819159278386 0.0 0.0 0.0 4.038819159278386 0.0 0.0 0.0 4.038819159278386" Properties=species:S:1:pos:R:3 nomad_metadata_type=https://encyclopedia.nomad-coe.eu/api/v1.0/ nomad_enc_material_id=17196 nomad_uri=materials/17196 nomad_enc_calc_id=1044464 nomad_program_name=VASP nomad_potential_energy=-3.9449997764253985e-05 nomad_total_energy=-3.74329288452338 nomad_free_energy=-3.7433060345226354 pbc="T T T"
Al       0.00000000       0.00000000       0.00000000 
Al       0.00000000       2.01940958       2.01940958 
Al       2.01940958       0.00000000       2.01940958 
Al       2.01940958       2.01940958       0.00000000 
4
Lattice="4.04021 0.0 0.0 0.0 4.04021 0.0 0.0 0.0 4.04021" Properties=species:S:1:pos:R:3 nomad_metadata_type=https://encyclopedia.nomad-coe.eu/api/v1.0/ nomad_enc_material_id=17196 nomad_uri=materials/17196 nomad_enc_calc_id=1055801 nomad_program_name=VASP nomad_potential_energy=-0.010019626932158625 nomad_total_energy=-5.482085989314255 nomad_free_energy=-5.487095804030336 pbc="T T T"
Al       0.00000000       0.00000000       0.00000000 
Al       0.00000000       2.02010500       2.02010500 
Al       2.02010500       0.00000000       2.02010500 
Al       2.02010500       2.02010500       0.00000000 
4
Lattice="4.045545260939413 0.0 0.0 0.0 4.045545260939413 0.0 0.0 0.0 4.045545260939413" Properties=species:S:1:pos:R:3 nomad_metadata_type=https://encyclopedia.nomad-coe.eu/api/v1.0/ nomad_enc_material_id=17196 nomad_uri=materials/17196 nomad_enc_calc_id=1178759 nomad_program_name=VASP nomad_potential_energy=-0.0005842199668905567 nomad_total_energy=-3.7315722185209586 nomad_free_energy=-3.7317669585099216 pbc="T T T"
Al       0.00000000       0.00000000       0.00000000 
Al       0.00000000       2.02277263       2.02277263 
Al       2.02277263       0.00000000       2.02277263 
Al       2.02277263       2.02277263       0.00000000 
4
Lattice="4.045545246876117 0.0 0.0 0.0 4.045545246876117 0.0 0.0 0.0 4.045545246876117" Properties=species:S:1:pos:R:3 nomad_metadata_type=https://encyclopedia.nomad-coe.eu/api/v1.0/ nomad_enc_material_id=17196 nomad_uri=materials/17196 nomad_enc_calc_id=1178776 nomad_program_name=VASP nomad_potential_energy=0.0 nomad_total_energy=-3.7439133478215507 nomad_free_energy=-3.7439133478215507 pbc="T T T"
Al       0.00000000       0.00000000       0.00000000 
Al       0.00000000       2.02277262       2.02277262 
Al       2.02277262       0.00000000       2.02277262 
Al       2.02277262       2.02277262       0.00000000 
4
Lattice="4.10645472559074 0.0 0.0 0.0 4.10645472559074 0.0 0.0 0.0 4.10645472559074" Properties=species:S:1:pos:R:3 nomad_metadata_type=https://encyclopedia.nomad-coe.eu/api/v1.0/ nomad_enc_material_id=17196 nomad_uri=materials/17196 nomad_enc_calc_id=119128 nomad_program_name=GPAW nomad_total_energy=-0.646433311009691 pbc="T T T"
Al       0.00000000       0.00000000       0.00000000 
Al       0.00000000       2.05322736       2.05322736 
Al       2.05322736       0.00000000       2.05322736 
Al       2.05322736       2.05322736       0.00000000 
4
Lattice="4.03889644 0.0 0.0 0.0 4.03889644 0.0 0.0 0.0 4.03889644" Properties=species:S:1:pos:R:3 nomad_metadata_type=https://encyclopedia.nomad-coe.eu/api/v1.0/ nomad_enc_material_id=17196 nomad_uri=materials/17196 nomad_enc_calc_id=1129608 nomad_program_name=VASP nomad_potential_energy=-1.2499999291588715e-05 nomad_total_energy=-3.7439971478168013 nomad_free_energy=-3.7440013078165655 pbc="T T T"
Al       0.00000000       0.00000000       0.00000000 
Al       0.00000000       2.01944822       2.01944822 
Al       2.01944822       0.00000000       2.01944822 
Al       2.01944822       2.01944822       0.00000000 
4
Lattice="4.038533969909351 0.0 0.0 0.0 4.038533969909351 0.0 0.0 0.0 4.038533969909351" Properties=species:S:1:pos:R:3 nomad_metadata_type=https://encyclopedia.nomad-coe.eu/api/v1.0/ nomad_enc_material_id=17196 nomad_uri=materials/17196 nomad_enc_calc_id=1129820 nomad_program_name=VASP nomad_potential_energy=-7.288999586911211e-05 nomad_total_energy=-3.7426722578918867 nomad_free_energy=-3.74269655289051 pbc="T T T"
Al       0.00000000       0.00000000       0.00000000 
Al       0.00000000       2.01926698       2.01926698 
Al       2.01926698       0.00000000       2.01926698 
Al       2.01926698       2.01926698       0.00000000 
4
Lattice="4.03889668 0.0 0.0 0.0 4.03889668 0.0 0.0 0.0 4.03889668" Properties=species:S:1:pos:R:3 nomad_metadata_type=https://encyclopedia.nomad-coe.eu/api/v1.0/ nomad_enc_material_id=17196 nomad_uri=materials/17196 nomad_enc_calc_id=1130499 nomad_program_name=VASP nomad_potential_energy=-1.2519999290455256e-05 nomad_total_energy=-3.743578767840512 nomad_free_energy=-3.743582937840276 pbc="T T T"
Al       0.00000000       0.00000000       0.00000000 
Al       0.00000000       2.01944834       2.01944834 
Al       2.01944834       0.00000000       2.01944834 
Al       2.01944834       2.01944834       0.00000000 
4
Lattice="4.040169871868452 0.0 0.0 0.0 4.040169871868452 0.0 0.0 0.0 4.040169871868452" Properties=species:S:1:pos:R:3 nomad_metadata_type=https://encyclopedia.nomad-coe.eu/api/v1.0/ nomad_enc_material_id=17196 nomad_uri=materials/17196 nomad_enc_calc_id=1131239 nomad_program_name=VASP nomad_potential_energy=-0.00016025999091760058 nomad_total_energy=-3.7363968982475297 nomad_free_energy=-3.7364503182445024 pbc="T T T"
Al       0.00000000       0.00000000       0.00000000 
Al       0.00000000       2.02008494       2.02008494 
Al       2.02008494       0.00000000       2.02008494 
Al       2.02008494       2.02008494       0.00000000 
4
Lattice="4.03894618 0.0 0.0 0.0 4.03894618 0.0 0.0 0.0 4.03894618" Properties=species:S:1:pos:R:3 nomad_metadata_type=https://encyclopedia.nomad-coe.eu/api/v1.0/ nomad_enc_material_id=17196 nomad_uri=materials/17196 nomad_enc_calc_id=1307647 nomad_program_name=VASP nomad_potential_energy=-1.6409999069997665e-05 nomad_total_energy=-3.743995167816913 nomad_free_energy=-3.7440006378166033 pbc="T T T"
Al       0.00000000       0.00000000       0.00000000 
Al       0.00000000       2.01947309       2.01947309 
Al       2.01947309       0.00000000       2.01947309 
Al       2.01947309       2.01947309       0.00000000 
4
Lattice="4.038615665356498 0.0 0.0 0.0 4.038615665356498 0.0 0.0 0.0 4.038615665356498" Properties=species:S:1:pos:R:3 nomad_metadata_type=https://encyclopedia.nomad-coe.eu/api/v1.0/ nomad_enc_material_id=17196 nomad_uri=materials/17196 nomad_enc_calc_id=1308357 nomad_program_name=VASP nomad_potential_energy=0.0002556999855087387 nomad_total_energy=-3.7431279478660615 nomad_free_energy=-3.743042717870892 pbc="T T T"
Al       0.00000000       0.00000000       0.00000000 
Al       0.00000000       2.01930783       2.01930783 
Al       2.01930783       0.00000000       2.01930783 
Al       2.01930783       2.01930783       0.00000000 
4
Lattice="4.039004065467956 0.0 0.0 0.0 4.039004065467956 0.0 0.0 0.0 4.039004065467956" Properties=species:S:1:pos:R:3 nomad_metadata_type=https://encyclopedia.nomad-coe.eu/api/v1.0/ nomad_enc_material_id=17196 nomad_uri=materials/17196 nomad_enc_calc_id=1357289 nomad_program_name=VASP nomad_potential_energy=-3.6739997917837545e-05 nomad_total_energy=-3.743379527851804 nomad_free_energy=-3.74339176785111 pbc="T T T"
Al       0.00000000       0.00000000       0.00000000 
Al       0.00000000       2.01950203       2.01950203 
Al       2.01950203       0.00000000       2.01950203 
Al       2.01950203       2.01950203       0.00000000 
4
Lattice="4.0389295509309395 0.0 0.0 0.0 4.0389295509309395 0.0 0.0 0.0 4.0389295509309395" Properties=species:S:1:pos:R:3 nomad_metadata_type=https://encyclopedia.nomad-coe.eu/api/v1.0/ nomad_enc_material_id=17196 nomad_uri=materials/17196 nomad_enc_calc_id=1359289 nomad_program_name=VASP nomad_potential_energy=-5.240999702977317e-05 nomad_total_energy=-3.7436432778368567 nomad_free_energy=-3.7436607478358663 pbc="T T T"
Al       0.00000000       0.00000000       0.00000000 
Al       0.00000000       2.01946478       2.01946478 
Al       2.01946478       0.00000000       2.01946478 
Al       2.01946478       2.01946478       0.00000000 
4
Lattice="4.038819174330255 0.0 0.0 0.0 4.038819174330255 0.0 0.0 0.0 4.038819174330255" Properties=species:S:1:pos:R:3 nomad_metadata_type=https://encyclopedia.nomad-coe.eu/api/v1.0/ nomad_enc_material_id=17196 nomad_uri=materials/17196 nomad_enc_calc_id=1360151 nomad_program_name=VASP nomad_potential_energy=-3.9449997764253985e-05 nomad_total_energy=-3.74329288452338 nomad_free_energy=-3.7433060345226354 pbc="T T T"
Al       0.00000000       0.00000000       0.00000000 
Al       0.00000000       2.01940959       2.01940959 
Al       2.01940959       0.00000000       2.01940959 
Al       2.01940959       2.01940959       0.00000000 
4
Lattice="4.040326840415029 0.0 0.0 0.0 4.040326840415029 0.0 0.0 0.0 4.040326840415029" Properties=species:S:1:pos:R:3 nomad_metadata_type=https://encyclopedia.nomad-coe.eu/api/v1.0/ nomad_enc_material_id=17196 nomad_uri=materials/17196 nomad_enc_calc_id=1360582 nomad_program_name=VASP nomad_potential_energy=-4.7849997288201594e-05 nomad_total_energy=-3.7363953082476193 nomad_free_energy=-3.7364112582467155 pbc="T T T"
Al       0.00000000       0.00000000       0.00000000 
Al       0.00000000       2.02016342       2.02016342 
Al       2.02016342       0.00000000       2.02016342 
Al       2.02016342       2.02016342       0.00000000 
4
Lattice="4.013093677880276 0.0 0.0 0.0 4.013093677880276 0.0 0.0 0.0 4.013093677880276" Properties=species:S:1:pos:R:3 nomad_metadata_type=https://encyclopedia.nomad-coe.eu/api/v1.0/ nomad_enc_material_id=17196 nomad_uri=materials/17196 nomad_enc_calc_id=1411287 nomad_program_name=exciting nomad_total_energy=-6607.52505866074 pbc="T T T"
Al       0.00000000       0.00000000       0.00000000 
Al       0.00000000       2.00654684       2.00654684 
Al       2.00654684       0.00000000       2.00654684 
Al       2.00654684       2.00654684       0.00000000 
4
Lattice="4.119449919503017 0.0 0.0 0.0 4.119449919503017 0.0 0.0 0.0 4.119449919503017" Properties=species:S:1:pos:R:3 nomad_metadata_type=https://encyclopedia.nomad-coe.eu/api/v1.0/ nomad_enc_material_id=17196 nomad_uri=materials/17196 nomad_enc_calc_id=1411343 nomad_program_name=exciting nomad_total_energy=-6607.513789883397 pbc="T T T"
Al       0.00000000       0.00000000       0.00000000 
Al       0.00000000       2.05972496       2.05972496 
Al       2.05972496       0.00000000       2.05972496 
Al       2.05972496       2.05972496       0.00000000 
4
Lattice="4.04020999823468 0.0 0.0 0.0 4.04020999823468 0.0 0.0 0.0 4.04020999823468" Properties=species:S:1:pos:R:3 nomad_metadata_type=https://encyclopedia.nomad-coe.eu/api/v1.0/ nomad_enc_material_id=17196 nomad_uri=materials/17196 nomad_enc_calc_id=1412811 nomad_program_name=exciting nomad_total_energy=-6607.526746310626 pbc="T T T"
Al       0.00000000       0.00000000       0.00000000 
Al       0.00000000       2.02010500       2.02010500 
Al       2.02010500       0.00000000       2.02010500 
Al       2.02010500       2.02010500       0.00000000 
4
Lattice="4.06696713564143 0.0 0.0 0.0 4.06696713564143 0.0 0.0 0.0 4.06696713564143" Properties=species:S:1:pos:R:3 nomad_metadata_type=https://encyclopedia.nomad-coe.eu/api/v1.0/ nomad_enc_material_id=17196 nomad_uri=materials/17196 nomad_enc_calc_id=1412835 nomad_program_name=exciting nomad_total_energy=-6607.525154172688 pbc="T T T"
Al       0.00000000       0.00000000       0.00000000 
Al       0.00000000       2.03348357       2.03348357 
Al       2.03348357       0.00000000       2.03348357 
Al       2.03348357       2.03348357       0.00000000 
4
Lattice="3.985605872160589 0.0 0.0 0.0 3.985605872160589 0.0 0.0 0.0 3.985605872160589" Properties=species:S:1:pos:R:3 nomad_metadata_type=https://encyclopedia.nomad-coe.eu/api/v1.0/ nomad_enc_material_id=17196 nomad_uri=materials/17196 nomad_enc_calc_id=1413399 nomad_program_name=exciting nomad_total_energy=-6607.519801966046 pbc="T T T"
Al       0.00000000       0.00000000       0.00000000 
Al       0.00000000       1.99280294       1.99280294 
Al       1.99280294       0.00000000       1.99280294 
Al       1.99280294       1.99280294       0.00000000 
4
Lattice="3.957733590515947 0.0 0.0 0.0 3.957733590515947 0.0 0.0 0.0 3.957733590515947" Properties=species:S:1:pos:R:3 nomad_metadata_type=https://encyclopedia.nomad-coe.eu/api/v1.0/ nomad_enc_material_id=17196 nomad_uri=materials/17196 nomad_enc_calc_id=1413817 nomad_program_name=exciting nomad_total_energy=-6607.5105256060615 pbc="T T T"
Al       0.00000000       0.00000000       0.00000000 
Al       0.00000000       1.97886680       1.97886680 
Al       1.97886680       0.00000000       1.97886680 
Al       1.97886680       1.97886680       0.00000000 
4
Lattice="3.9834133 0.0 0.0 0.0 3.9834133 0.0 0.0 0.0 3.9834133" Properties=species:S:1:pos:R:3 nomad_metadata_type=https://encyclopedia.nomad-coe.eu/api/v1.0/ nomad_enc_material_id=17196 nomad_uri=materials/17196 nomad_enc_calc_id=1414017 nomad_program_name=VASP nomad_potential_energy=-1.4299999189577489e-05 nomad_total_energy=-4.192524462397455 nomad_free_energy=-4.1925292223971855 pbc="T T T"
Al       0.00000000       0.00000000       0.00000000 
Al       0.00000000       1.99170665       1.99170665 
Al       1.99170665       0.00000000       1.99170665 
Al       1.99170665       1.99170665       0.00000000 
4
Lattice="3.9787465 0.0 0.0 0.0 3.9787465 0.0 0.0 0.0 3.9787465" Properties=species:S:1:pos:R:3 nomad_metadata_type=https://encyclopedia.nomad-coe.eu/api/v1.0/ nomad_enc_material_id=17196 nomad_uri=materials/17196 nomad_enc_calc_id=1414171 nomad_program_name=VASP nomad_potential_energy=-1.4569999174275804e-05 nomad_total_energy=-4.194652452276856 nomad_free_energy=-4.19465731227658 pbc="T T T"
Al       0.00000000       0.00000000       0.00000000 
Al       0.00000000       1.98937325       1.98937325 
Al       1.98937325       0.00000000       1.98937325 
Al       1.98937325       1.98937325       0.00000000 
4
Lattice="3.9787469200000003 0.0 0.0 0.0 3.9787469200000003 0.0 0.0 0.0 3.9787469200000003" Properties=species:S:1:pos:R:3 nomad_metadata_type=https://encyclopedia.nomad-coe.eu/api/v1.0/ nomad_enc_material_id=17196 nomad_uri=materials/17196 nomad_enc_calc_id=1414297 nomad_program_name=VASP nomad_potential_energy=-0.0013708699223088177 nomad_total_energy=-2.078377892212285 nomad_free_energy=-2.079063332173439 pbc="T T T"
Al       0.00000000       0.00000000       0.00000000 
Al       0.00000000       1.98937346       1.98937346 
Al       1.98937346       0.00000000       1.98937346 
Al       1.98937346       1.98937346       0.00000000 
4
Lattice="3.9834137 0.0 0.0 0.0 3.9834137 0.0 0.0 0.0 3.9834137" Properties=species:S:1:pos:R:3 nomad_metadata_type=https://encyclopedia.nomad-coe.eu/api/v1.0/ nomad_enc_material_id=17196 nomad_uri=materials/17196 nomad_enc_calc_id=1414522 nomad_program_name=VASP nomad_potential_energy=-0.0013736599221507004 nomad_total_energy=-2.0935094313547364 nomad_free_energy=-2.094196261315812 pbc="T T T"
Al       0.00000000       0.00000000       0.00000000 
Al       0.00000000       1.99170685       1.99170685 
Al       1.99170685       0.00000000       1.99170685 
Al       1.99170685       1.99170685       0.00000000 
4
Lattice="4.093376753166249 0.0 0.0 0.0 4.093376753166249 0.0 0.0 0.0 4.093376753166249" Properties=species:S:1:pos:R:3 nomad_metadata_type=https://encyclopedia.nomad-coe.eu/api/v1.0/ nomad_enc_material_id=17196 nomad_uri=materials/17196 nomad_enc_calc_id=1414924 nomad_program_name=exciting nomad_total_energy=-6607.520766881635 pbc="T T T"
Al       0.00000000       0.00000000       0.00000000 
Al       0.00000000       2.04668838       2.04668838 
Al       2.04668838       0.00000000       2.04668838 
Al       2.04668838       2.04668838       0.00000000 
4
Lattice="3.9046091400000003 0.0 0.0 0.0 3.9046091400000003 0.0 0.0 0.0 3.9046091400000003" Properties=species:S:1:pos:R:3 nomad_metadata_type=https://encyclopedia.nomad-coe.eu/api/v1.0/ nomad_enc_material_id=17196 nomad_uri=materials/17196 nomad_enc_calc_id=1414955 nomad_program_name=VASP nomad_potential_energy=0.00018175998969913315 nomad_total_energy=-3.799076264695308 nomad_free_energy=-3.7990156746987416 pbc="T T T"
Al       0.00000000       0.00000000       0.00000000 
Al       0.00000000       1.95230457       1.95230457 
Al       1.95230457       0.00000000       1.95230457 
Al       1.95230457       1.95230457       0.00000000 
4
Lattice="3.90415394 0.0 0.0 0.0 3.90415394 0.0 0.0 0.0 3.90415394" Properties=species:S:1:pos:R:3 nomad_metadata_type=https://encyclopedia.nomad-coe.eu/api/v1.0/ nomad_enc_material_id=17196 nomad_uri=materials/17196 nomad_enc_calc_id=1416097 nomad_program_name=VASP nomad_potential_energy=-0.0013659699225865149 nomad_total_energy=-1.6361588572741228 nomad_free_energy=-1.6368418372354163 pbc="T T T"
Al       0.00000000       0.00000000       0.00000000 
Al       0.00000000       1.95207697       1.95207697 
Al       1.95207697       0.00000000       1.95207697 
Al       1.95207697       1.95207697       0.00000000 
4
Lattice="3.90415354 0.0 0.0 0.0 3.90415354 0.0 0.0 0.0 3.90415354" Properties=species:S:1:pos:R:3 nomad_metadata_type=https://encyclopedia.nomad-coe.eu/api/v1.0/ nomad_enc_material_id=17196 nomad_uri=materials/17196 nomad_enc_calc_id=1416578 nomad_program_name=VASP nomad_potential_energy=0.00029329998337783756 nomad_total_energy=-3.8000176046419587 nomad_free_energy=-3.7999198446474995 pbc="T T T"
Al       0.00000000       0.00000000       0.00000000 
Al       0.00000000       1.95207677       1.95207677 
Al       1.95207677       0.00000000       1.95207677 
Al       1.95207677       1.95207677       0.00000000 
4
Lattice="4.040264051105909 0.0 0.0 0.0 4.040264051105909 0.0 0.0 0.0 4.040264051105909" Properties=species:S:1:pos:R:3 nomad_metadata_type=https://encyclopedia.nomad-coe.eu/api/v1.0/ nomad_enc_material_id=17196 nomad_uri=materials/17196 nomad_enc_calc_id=1541447 nomad_program_name=VASP nomad_potential_energy=-4.642999736867713e-05 nomad_total_energy=-3.7363947082476536 nomad_free_energy=-3.736410184913444 pbc="T T T"
Al       0.00000000       0.00000000       0.00000000 
Al       0.00000000       2.02013203       2.02013203 
Al       2.02013203       0.00000000       2.02013203 
Al       2.02013203       2.02013203       0.00000000 
4
Lattice="4.038737755418499 0.0 0.0 0.0 4.038737755418499 0.0 0.0 0.0 4.038737755418499" Properties=species:S:1:pos:R:3 nomad_metadata_type=https://encyclopedia.nomad-coe.eu/api/v1.0/ nomad_enc_material_id=17196 nomad_uri=materials/17196 nomad_enc_calc_id=1541875 nomad_program_name=VASP nomad_potential_energy=-3.829333116313897e-05 nomad_total_energy=-3.743291937856768 nomad_free_energy=-3.7433047011893774 pbc="T T T"
Al       0.00000000       0.00000000       0.00000000 
Al       0.00000000       2.01936888       2.01936888 
Al       2.01936888       0.00000000       2.01936888 
Al       2.01936888       2.01936888       0.00000000 
4
Lattice="4.038932729916027 0.0 0.0 0.0 4.038932729916027 0.0 0.0 0.0 4.038932729916027" Properties=species:S:1:pos:R:3 nomad_metadata_type=https://encyclopedia.nomad-coe.eu/api/v1.0/ nomad_enc_material_id=17196 nomad_uri=materials/17196 nomad_enc_calc_id=1558205 nomad_program_name=VASP nomad_potential_energy=-5.2419997029206436e-05 nomad_total_energy=-3.7436432778368567 nomad_free_energy=-3.7436607478358663 pbc="T T T"
Al       0.00000000       0.00000000       0.00000000 
Al       0.00000000       2.01946636       2.01946636 
Al       2.01946636       0.00000000       2.01946636 
Al       2.01946636       2.01946636       0.00000000 
4
Lattice="4.0393952455384685 0.0 0.0 0.0 4.0393952455384685 0.0 0.0 0.0 4.0393952455384685" Properties=species:S:1:pos:R:3 nomad_metadata_type=https://encyclopedia.nomad-coe.eu/api/v1.0/ nomad_enc_material_id=17196 nomad_uri=materials/17196 nomad_enc_calc_id=1558337 nomad_program_name=VASP nomad_potential_energy=-2.4099998634183038e-05 nomad_total_energy=-3.743711477832991 nomad_free_energy=-3.7437195078325365 pbc="T T T"
Al       0.00000000       0.00000000       0.00000000 
Al       0.00000000       2.01969762       2.01969762 
Al       2.01969762       0.00000000       2.01969762 
Al       2.01969762       2.01969762       0.00000000 
4
Lattice="4.03899237502256 0.0 0.0 0.0 4.03899237502256 0.0 0.0 0.0 4.03899237502256" Properties=species:S:1:pos:R:3 nomad_metadata_type=https://encyclopedia.nomad-coe.eu/api/v1.0/ nomad_enc_material_id=17196 nomad_uri=materials/17196 nomad_enc_calc_id=1558786 nomad_program_name=VASP nomad_potential_energy=-3.6739997917837545e-05 nomad_total_energy=-3.743379557851802 nomad_free_energy=-3.743391797851108 pbc="T T T"
Al       0.00000000       0.00000000       0.00000000 
Al       0.00000000       2.01949619       2.01949619 
Al       2.01949619       0.00000000       2.01949619 
Al       2.01949619       2.01949619       0.00000000 
4
Lattice="4.038933315859265 0.0 0.0 0.0 4.038933315859265 0.0 0.0 0.0 4.038933315859265" Properties=species:S:1:pos:R:3 nomad_metadata_type=https://encyclopedia.nomad-coe.eu/api/v1.0/ nomad_enc_material_id=17196 nomad_uri=materials/17196 nomad_enc_calc_id=1569290 nomad_program_name=VASP nomad_potential_energy=-5.2389997030906616e-05 nomad_total_energy=-3.7436432878368557 nomad_free_energy=-3.7436607578358654 pbc="T T T"
Al       0.00000000       0.00000000       0.00000000 
Al       0.00000000       2.01946666       2.01946666 
Al       2.01946666       0.00000000       2.01946666 
Al       2.01946666       2.01946666       0.00000000 
4
Lattice="4.038990552179848 0.0 0.0 0.0 4.038990552179848 0.0 0.0 0.0 4.038990552179848" Properties=species:S:1:pos:R:3 nomad_metadata_type=https://encyclopedia.nomad-coe.eu/api/v1.0/ nomad_enc_material_id=17196 nomad_uri=materials/17196 nomad_enc_calc_id=1569352 nomad_program_name=VASP nomad_potential_energy=-3.672999791840428e-05 nomad_total_energy=-3.743379527851804 nomad_free_energy=-3.743391777851109 pbc="T T T"
Al       0.00000000       0.00000000       0.00000000 
Al       0.00000000       2.01949528       2.01949528 
Al       2.01949528       0.00000000       2.01949528 
Al       2.01949528       2.01949528       0.00000000 
4